14
s0.log	Energy: -387617.9516778
N          1.40140       -0.55110        0.18630
O         -0.37792       -0.36020       -0.91103
N         -1.40068       -0.68851       -0.19330
O         -2.35983        0.10010       -0.19074
O         -1.36757       -1.72142        0.45803
O          2.07885       -1.14963       -0.54988
O          1.05499       -0.52875        1.29890
H          0.61115        1.77161       -0.03730
H          1.56621        1.18880       -1.27923
O          1.58566        1.27506       -0.31507
H         -0.70188        2.50876        1.30205
H         -0.74598        3.26822       -0.14875
N         -0.60467        2.36831        0.30034
H         -1.35746        1.73226       -0.00009
