10
s0.log	Energy: -352168.1385609
N          1.06288       -0.65885        0.26221
O         -0.24632       -0.85452       -0.39040
N         -1.38508       -0.05956        0.08882
O         -1.20860        0.75159        0.93719
O         -2.35355       -0.38706       -0.52304
O          1.93062       -0.88234       -0.52029
O          1.07017       -0.40051        1.42153
O          0.68930        1.84373       -0.91087
H          1.25530        1.98816       -1.67459
H          0.67638        2.67590       -0.42944
