10
s0.log	Energy: -352153.7961699
N          1.42890       -0.34214        0.19922
O         -0.54935       -0.81891       -0.47836
N         -1.51669       -0.09286       -0.07174
O         -1.25070        1.09842        0.27927
O         -2.64084       -0.53059       -0.03263
O          2.02609       -0.88536       -0.63564
O          1.29044       -0.24705        1.34589
O          1.08644        1.45957       -0.42729
H          1.10048        1.40576       -1.39366
H          0.07267        1.42043       -0.13800
