13
s0.log	Energy: -400088.2613244
N          1.17277       -0.85875       -0.02664
O         -0.18968       -0.35991       -0.63963
N         -1.32996       -0.74486        0.06905
O         -2.22289        0.06097       -0.05012
O         -1.32041       -1.79480        0.64173
O          1.94389       -0.98418       -0.90544
O          1.17881       -0.97560        1.14227
H          0.77066        2.23447       -0.00694
H          2.30090        2.29686       -0.21351
H         -1.40860        3.32445        0.19414
H         -1.46841        1.93772       -0.47379
O         -0.93903        2.74460       -0.41188
O          1.61026        1.79866        0.22962
